<?xml version="1.0" encoding="UTF-8"?>

<!-- generated on 2024-03-25 16:01:45 by Eclipse SUMO sumo Version 1.19.0
<configuration xmlns:xsi="http://www.w3.org/2001/XMLSchema-instance" xsi:noNamespaceSchemaLocation="http://sumo.dlr.de/xsd/sumoConfiguration.xsd">

    <input>
        <net-file value="C:\Users\Gabe Piano\Sumo\2024-03-25-16-01-18\osm.net.xml.gz"/>
        <route-files value="C:\Users\Gabe Piano\Sumo\2024-03-25-16-01-18\trips.trips.xml"/>
        <additional-files value="C:\Users\Gabe Piano\Sumo\2024-03-25-16-01-18\osm_stops.add.xml"/>
    </input>

    <output>
        <vehroute-output value="C:\Users\Gabe Piano\Sumo\2024-03-25-16-01-18\vehroutes.xml"/>
        <stop-output value="C:\Users\Gabe Piano\Sumo\2024-03-25-16-01-18\stopinfos.xml"/>
    </output>

    <time>
        <begin value="0.0"/>
    </time>

    <processing>
        <ignore-route-errors value="true"/>
    </processing>

    <routing>
        <device.rerouting.adaptation-interval value="0"/>
    </routing>

    <report>
        <aggregate-warnings value="5"/>
        <error-log value="C:\Users\Gabe Piano\Sumo\2024-03-25-16-01-18\trips.trips.xml.errorlog"/>
        <no-step-log value="true"/>
    </report>

</configuration>
-->

<routes xmlns:xsi="http://www.w3.org/2001/XMLSchema-instance" xsi:noNamespaceSchemaLocation="http://sumo.dlr.de/xsd/routes_file.xsd">
    <vehicle id="3_bus_1:1" type="pt_bus" depart="383.00" departLane="1" arrival="408.00">
        <route edges="775216094 22761597#0 22761597#1"/>
    </vehicle>

</routes>
