<?xml version="1.0" encoding="UTF-8"?>

<!-- generated on 2024-03-25 15:56:08 by Eclipse SUMO sumo Version 1.19.0
<configuration xmlns:xsi="http://www.w3.org/2001/XMLSchema-instance" xsi:noNamespaceSchemaLocation="http://sumo.dlr.de/xsd/sumoConfiguration.xsd">

    <input>
        <net-file value="C:\Users\Gabe Piano\Sumo\2024-03-25-15-55-45\osm.net.xml.gz"/>
        <route-files value="C:\Users\Gabe Piano\Sumo\2024-03-25-15-55-45\trips.trips.xml"/>
        <additional-files value="C:\Users\Gabe Piano\Sumo\2024-03-25-15-55-45\osm_stops.add.xml"/>
    </input>

    <output>
        <vehroute-output value="C:\Users\Gabe Piano\Sumo\2024-03-25-15-55-45\vehroutes.xml"/>
        <stop-output value="C:\Users\Gabe Piano\Sumo\2024-03-25-15-55-45\stopinfos.xml"/>
    </output>

    <time>
        <begin value="0.0"/>
    </time>

    <processing>
        <ignore-route-errors value="true"/>
    </processing>

    <routing>
        <device.rerouting.adaptation-interval value="0"/>
    </routing>

    <report>
        <aggregate-warnings value="5"/>
        <error-log value="C:\Users\Gabe Piano\Sumo\2024-03-25-15-55-45\trips.trips.xml.errorlog"/>
        <no-step-log value="true"/>
    </report>

</configuration>
-->

<routes xmlns:xsi="http://www.w3.org/2001/XMLSchema-instance" xsi:noNamespaceSchemaLocation="http://sumo.dlr.de/xsd/routes_file.xsd">
    <vehicle id="0_bus_Minibus:_Central_Mall_Dasmariñas_→_SaveMore_San_Marino:0" type="pt_bus" depart="15.00" departLane="1" arrival="485.00">
        <route edges="1103029872 758880904#1 1103029856#1 1103029858#1 1103029863#1 1103029863#2 1103029835#1 1103029835#2 1033118917#0 1033118917#1 651079971 651079972 114213935#1 114213935#2 1090755562#1 662913519#1 892972017#1"/>
        <stop busStop="5263361646" duration="30.00"/>
        <stop busStop="669558953" duration="30.00"/>
        <stop busStop="28997085" duration="30.00"/>
        <stop busStop="6205714720" duration="30.00"/>
        <stop busStop="6205714701" duration="30.00"/>
    </vehicle>

    <vehicle id="1_bus_Minibus:_SaveMore_San_Marino_→_Central_Mall_Dasmariñas:0" type="pt_bus" depart="133.00" departLane="0" arrival="531.00">
        <route edges="584825959 662913524 660352572#1 660352572#2 660352567 651080033#1 1090755561#1 660352582#1 1198531265 660352585 114213938 1033118918 1103029833#0 1103029833#1 1103029814#1 114213957#1 1103029862#1 544489112 662913537#0 1103029873"/>
        <stop busStop="9849403598" duration="30.00"/>
        <stop busStop="1294039033" duration="30.00"/>
        <stop busStop="28997041" duration="30.00"/>
    </vehicle>

    <vehicle id="2_bus_32:0" type="pt_bus" depart="165.00" departLane="2" arrival="1135.00">
        <route edges="109984882#0 -183543979#1 -183543979#0 -282194769 651079976 573710407 993441705 767517245 775185678 894843877#2 -690613619 -690613617 -918082989 -690613625#1 -690613625#0 -690613620#0 -879177024#0 -111987010#0 -111987075 -879177025#1 -879177025#0 -642893603 -872215578 -544489067#0 871213663#0 871213663#1 544489068#1 574917579#1 1103029872 758880904#1 1103029856#1 1103029858#1 1103029863#1 1103029863#2 1103029835#1 1103029835#2 1033118917#0 1033118917#1 651079971 651079972 114213935#1 114213935#2 1090755562#1 662913519#1 892972017#1 -563021933"/>
        <stop busStop="5263361646" duration="30.00"/>
        <stop busStop="669558953" duration="30.00"/>
        <stop busStop="28997085" duration="30.00"/>
        <stop busStop="6205714720" duration="30.00"/>
        <stop busStop="6205714701" duration="30.00"/>
    </vehicle>

    <vehicle id="4_bus_417:0" type="pt_bus" depart="406.00" departLane="0" arrival="1256.00">
        <route edges="583701022 584825959 662913524 660352572#1 660352572#2 660352567 651080033#1 1090755561#1 660352582#1 1198531265 660352585 114213938 1033118918 1103029833#0 1103029833#1 1103029814#1 114213957#1 1103029862#1 544489112 662913537#0 1103029873 758887472 574917570#1 574917575#1 870991316 879172124 544489067#1 872215569 879177025#0 879177025#1 111987075 111987010#0 111987010#1 879177024#1 690613620#1 690613625#1 879172096 690613617 690613619 870991328#0 870991328#1 870991319#0 870991319#1 624604435#0 366952449#1 642896772 -797720294 -651079992 690977719 820090516 183543979#1 109971518#1"/>
        <stop busStop="1294039033" duration="30.00"/>
        <stop busStop="28997041" duration="30.00"/>
    </vehicle>

    <vehicle id="5_bus_417:1" type="pt_bus" depart="441.00" departLane="2" arrival="1353.00">
        <route edges="109984882#0 -183543979#1 -183543979#0 -282194769 651079976 573710407 993441705 767517245 775185678 894843877#2 -690613619 -690613617 -918082989 -690613625#1 -690613625#0 -690613620#0 -879177024#0 -111987010#0 -111987075 -879177025#1 -879177025#0 -642893603 -872215578 -544489067#0 871213663#0 871213663#1 544489068#1 574917579#1 1103029872 758880904#1 1103029856#1 1103029858#1 1103029863#1 1103029863#2 1103029835#1 1103029835#2 1033118917#0 1033118917#1 651079971 651079972 114213935#1 114213935#2 1090755562#1 662913519#1 892972017#1"/>
        <stop busStop="5263361646" duration="30.00"/>
        <stop busStop="669558953" duration="30.00"/>
        <stop busStop="28997085" duration="30.00"/>
        <stop busStop="6205714720" duration="30.00"/>
        <stop busStop="6205714701" duration="30.00"/>
    </vehicle>

    <vehicle id="3_bus_32:1" type="pt_bus" depart="383.00" departLane="0" arrival="1485.00">
        <route edges="892972017#1 -563021933 583701022 584825959 662913524 660352572#1 660352572#2 660352567 651080033#1 1090755561#1 660352582#1 1198531265 660352585 114213938 1033118918 1103029833#0 1103029833#1 1103029814#1 114213957#1 1103029862#1 544489112 662913537#0 1103029873 758887472 574917570#1 574917575#1 870991316 879172124 544489067#1 872215569 879177025#0 879177025#1 111987075 111987010#0 111987010#1 879177024#1 690613620#1 690613625#1 879172096 690613617 690613619 870991328#0 870991328#1 870991319#0 870991319#1 624604435#0 366952449#1 642896772 -797720294 -651079992 690977719 820090516 183543979#1 109971518#1"/>
        <stop busStop="1044540481" duration="30.00"/>
        <stop busStop="9849403598" duration="30.00"/>
        <stop busStop="1294039033" duration="30.00"/>
        <stop busStop="28997041" duration="30.00"/>
    </vehicle>

</routes>
